9
Properties=species:S:1:pos:R:3:forces:R:3 generated=T by=T VMD=T pbc="F F F"
C       -3.70107251      -2.31355562       0.92208776       0.00000024       0.00000286       0.00000167
C       -4.15266195      -2.59667783      -0.35712960      -0.00000787       0.00000018      -0.00000250
C       -2.41296666      -2.82326541       1.30737976       0.00000644      -0.00000507      -0.00000143
O       -3.46271870      -3.30292370      -1.22407508       0.00000286      -0.00000030       0.00000075
O       -1.69097163      -3.50585701       0.54004541      -0.00000530       0.00000417       0.00000286
H       -2.59293532      -3.54494781      -0.71082791       0.00000060       0.00000006       0.00000017
H       -4.30984796      -1.71851161       1.61738534       0.00000054      -0.00000113      -0.00000131
H       -5.12948092      -2.24478485      -0.73512793       0.00000310      -0.00000021       0.00000167
H       -2.04080884      -2.59932473       2.33834742      -0.00000018       0.00000007      -0.00000119
